/*--------------------------------*- C++ -*----------------------------------*\
| =========                 |                                                 |
| \\      /  F ield         | foam-extend: Open Source CFD                    |
|  \\    /   O peration     | Version:     4.0                                |
|   \\  /    A nd           | Web:         http://www.foam-extend.org         |
|    \\/     M anipulation  |                                                 |
\*---------------------------------------------------------------------------*/
FoamFile
{
    version     2.0;
    format      ascii;
    class       volScalarField;
    location    "5";
    object      T;
}
// * * * * * * * * * * * * * * * * * * * * * * * * * * * * * * * * * * * * * //

dimensions      [0 0 0 1 0 0 0];

internalField   nonuniform List<scalar> 
200
(
0.9978215957921326
0.9934603736255339
0.9890932598330577
0.9847202464556379
0.9803413255234563
0.9759564890559287
0.9715657290616884
0.9671690375385755
0.9627664064736168
0.9583578278430167
0.9539432936121406
0.9495227957354975
0.9450963261567287
0.9406638768085922
0.9362254396129486
0.9317810064807439
0.9273305693119975
0.9228741199957877
0.9184116504102335
0.9139431524224828
0.9094686178886962
0.9049880386540341
0.9005014065526402
0.8960087134076256
0.8915099510310545
0.8870051112239334
0.882494185776189
0.8779771664666587
0.8734540450630748
0.8689248133220451
0.8643894629890454
0.8598479857983978
0.8553003734732592
0.8507466177256031
0.8461867102562106
0.8416206427546484
0.8370484068992576
0.8324699943571359
0.8278853967841258
0.8232946058247967
0.8186976131124317
0.8140944102690093
0.8094849889051923
0.8048693406203076
0.8002474570023352
0.7956193296278906
0.7909849500622124
0.7863443098591407
0.7816974005611073
0.7770442136991194
0.7723847407927429
0.7677189733500862
0.7630469028677878
0.7583685208309983
0.7536838187133639
0.7489927879770137
0.744295420072544
0.7395917064389992
0.734881638503861
0.7301652076830294
0.7254424053808073
0.7207132229898852
0.715977651891329
0.7112356834545577
0.7064873090373331
0.7017325199857414
0.6969713076341777
0.6922036633053317
0.6874295783101707
0.6826490439479223
0.6778620515060623
0.6730685922602944
0.6682686574745396
0.6634622384009141
0.6586493262797188
0.6538299123394191
0.649003987796632
0.6441715438561091
0.6393325717107192
0.6344870625414352
0.6296350075173143
0.6247763977954857
0.6199112245211316
0.6150394788274718
0.6101611518357495
0.6052762346552116
0.6003847183830953
0.595486594104611
0.5905818528929263
0.5856704858091479
0.5807524839023084
0.5758278382093485
0.5708965397550991
0.5659585795522681
0.5610139486014214
0.5560626378909683
0.5511046383971427
0.54613994108399
0.5411685369033474
0.5361904167948297
0.5312055716858111
0.5262139924914107
0.5212156701144739
0.5162105954455565
0.5111987593629084
0.5061801527324579
0.5011547664077916
0.4961225912301428
0.4910836180283704
0.486037837618944
0.4809852408059276
0.4759258183809627
0.47085956112325
0.4657864597995336
0.4607065051640857
0.4556196879586878
0.4505259989126138
0.4454254287426145
0.4403179681528981
0.4352036078351173
0.4300823384683494
0.4249541507190781
0.419819035241181
0.4146769826759082
0.4095279836518677
0.4043720287850068
0.3992091086785971
0.3940392139232149
0.3888623350967255
0.3836784627642666
0.3784875874782285
0.3732896997782395
0.3680847901911481
0.3628728492310058
0.3576538673990481
0.3524278351836787
0.3471947430604531
0.3419545814920597
0.3367073409283017
0.3314530118060825
0.3261915845493859
0.3209230495692585
0.3156473972637941
0.3103646180181156
0.3050747022043554
0.2997776401816412
0.2944734222960754
0.2891620388807205
0.2838434802555771
0.2785177367275722
0.2731847985905355
0.2678446561251864
0.2624972995991146
0.2571427192667599
0.2517809053693982
0.2464118481351231
0.2410355377788264
0.2356519645021797
0.2302611184936207
0.2248629899283303
0.2194575689682176
0.2140448457619017
0.208624810444693
0.2031974531385758
0.1977627639521895
0.1923207329808107
0.1868713503063386
0.1814146059972712
0.175950490108689
0.1704789926822396
0.1650001037461193
0.1595138133150495
0.1540201113902659
0.1485189879594939
0.1430104329969355
0.1374944364632462
0.1319709883055235
0.1264400784572785
0.1209016968384286
0.115355833355272
0.1098024779004687
0.1042416203530294
0.09867325057828769
0.09309735842788936
0.08751393373976946
0.08192296633813445
0.07632444603344357
0.07071836262239373
0.0651047058878973
0.05948346559905992
0.05385463151117342
0.04821819336568289
0.04257414089017963
0.03692246379837716
0.03126315179009076
0.02559619455122419
0.0199215817537457
0.014239303055672
0.008549348101048793
0.002851706519931163
)
;

boundaryField
{
    inlet
    {
        type            fixedValue;
        value           uniform 1;
    }
    outlet
    {
        type            fixedValue;
        value           uniform 0;
    }
    noFlow
    {
        type            empty;
    }
}


// ************************************************************************* //
