/*--------------------------------*- C++ -*----------------------------------*\
| =========                 |                                                 |
| \\      /  F ield         | foam-extend: Open Source CFD                    |
|  \\    /   O peration     | Version:     4.0                                |
|   \\  /    A nd           | Web:         http://www.foam-extend.org         |
|    \\/     M anipulation  |                                                 |
\*---------------------------------------------------------------------------*/
FoamFile
{
    version     2.0;
    format      ascii;
    class       volScalarField;
    location    "5";
    object      T;
}
// * * * * * * * * * * * * * * * * * * * * * * * * * * * * * * * * * * * * * //

dimensions      [0 0 0 1 0 0 0];

internalField   nonuniform List<scalar> 
50
(
0.99127755367972
0.9737618499995291
0.9561513056802018
0.938445407197019
0.9206436382447243
0.9027454797224754
0.8847504097187011
0.8666579034958852
0.8484674334752635
0.8301784692214422
0.8117904774269267
0.7933029218965735
0.7747152635319541
0.7560269603156331
0.7372374672953641
0.7183462365682001
0.6993527172645133
0.6802563555319359
0.6610565945192062
0.6417528743599328
0.6223446321562678
0.6028313019624934
0.583212314768518
0.5634870984832863
0.5436550779180922
0.5237156747698113
0.5036683076040349
0.4835123918381154
0.4632473397241221
0.4428725603316987
0.4223874595308334
0.401791439974537
0.3810839010814186
0.3602642390181767
0.3393318466819917
0.3182861136828188
0.2971264263255926
0.2758521675923306
0.2544627171241402
0.2329574512031298
0.2113357427342226
0.1895969612268668
0.1677404727766527
0.1457656400468288
0.123671822249717
0.1014583751280229
0.07912465093605459
0.05666999842083342
0.03409376280309928
0.01139528575822268
)
;

boundaryField
{
    inlet
    {
        type            fixedValue;
        value           uniform 1;
    }
    outlet
    {
        type            fixedValue;
        value           uniform 0;
    }
    noFlow
    {
        type            empty;
    }
}


// ************************************************************************* //
